 0.577802 -0.798548 -0.114848  0.215259   2.90153   0.65353  -1.79737 0.0841251 -0.457757 -0.312739 0.0800837 -0.396465 -0.395815 -0.548952  0.339082   1.11746 
 0.577802 -0.798548 -0.114848  0.215259   2.90153   0.65353  -1.79737 0.0841251 -0.457757 -0.312739 0.0800837 -0.396465 -0.395815 -0.548952  0.132532   1.11746 
 0.577802 -0.798548 -0.114848  0.215259   2.90153   0.65353  -1.79737 0.0841251 -0.457757 -0.312739 0.0800837 -0.396465 -0.395815 -0.548952  0.132532   1.11746 
 0.577802 -0.798548 -0.114848  0.215259   2.90153   0.65353  -1.79737 0.0841251 -0.457757 -0.312739 0.0800837 -0.396465 -0.395815 -0.548952  0.132532   1.11746 
 0.577802 -0.798548 -0.114848  0.215259   2.90153   0.65353  -1.79737 0.0841251 -0.457757 -0.312739 0.0800837 -0.396465 -0.395815 -0.548952  0.132532   1.11746 
 0.577802 -0.798548 -0.114848  0.215259   2.90153   0.65353  -1.79737 0.0841251 -0.457757 -0.312739 0.0800837 -0.396465 0.0588347 -0.548952  0.339082   1.11746 
 0.577802 -0.798548 -0.114848  0.215259   2.90153  0.918408  -1.79737 0.0841251 -0.457757 -0.312739 0.0800837 -0.396465 -0.395815 -0.548952  0.339082   1.11746 
 0.577802  -1.03935 -0.114848  0.215259   2.90153  0.918408  -1.79737 0.0841251 -0.457757 -0.312739 0.0800837 -0.396465 -0.395815 -0.548952  0.132532   1.11746 
 0.577802  -1.03935 -0.114848  0.215259   2.90153  0.918408  -1.79737 0.0841251 -0.457757 -0.312739 0.0800837 -0.396465 -0.395815 -0.548952  0.132532   1.11746 
 0.577802  -1.03935 -0.114848  0.215259   2.90153  0.918408  -1.79737 0.0841251 -0.457757 -0.312739 0.0800837 -0.396465 -0.395815 -0.548952  0.132532   1.11746 
 0.577802  -1.03935 -0.114848  0.215259   2.90153   0.65353  -1.79737 0.0841251 -0.730417 -0.312739 0.0800837 -0.396465 -0.395815 -0.662397  0.132532   1.11746 
 0.577802 -0.798548 -0.114848  0.215259   2.90153   0.65353  -1.79737 0.0841251 -0.457757 -0.312739 0.0800837 -0.396465 -0.395815 -0.548952  0.132532   1.11746 
 0.577802 -0.798548 -0.114848  0.215259   2.90153   0.65353  -1.79737 0.0841251 -0.457757 -0.312739 0.0800837 -0.396465 0.0588347 -0.548952  0.339082   1.11746 
 0.577802  -1.03935  0.282328  0.215259   2.90153  0.918408  -1.79737 0.0841251 -0.457757 -0.312739 0.0800837 -0.396465 -0.395815 -0.548952  0.132532   1.11746 
 0.577802  -1.03935 -0.114848  0.215259   2.90153  0.918408  -1.79737 0.0841251 -0.457757 -0.312739 0.0800837 -0.396465 -0.395815 -0.548952  0.339082   1.11746 
 0.577802  -1.03935 -0.114848  0.215259   2.90153  0.918408  -1.79737 0.0841251 -0.457757 -0.312739 0.0800837 -0.396465 -0.395815 -0.548952  0.339082   1.11746 
 0.577802  -1.03935 -0.114848  0.215259   2.90153  0.918408  -1.79737 0.0841251 -0.457757 -0.312739 0.0800837 -0.396465 -0.395815 -0.548952  0.132532   1.11746 
 0.577802 -0.798548 -0.114848  0.215259   2.90153   0.65353  -1.79737 0.0841251 -0.730417 -0.312739 0.0800837 -0.396465 -0.395815 -0.662397  0.132532   1.11746 
 0.577802  -1.03935 -0.114848  0.215259   2.90153  0.918408  -1.69026 0.0841251 -0.457757 -0.312739 0.0800837 -0.396465 -0.395815 -0.548952  0.339082   1.11746 
 0.577802  -1.03935 -0.114848  0.215259   2.90153  0.918408  -1.69026 0.0841251 -0.457757 -0.312739 0.0800837 -0.396465 -0.395815 -0.548952  0.132532   1.11746 





 0.577802 -0.798548 -0.114848  0.215259   2.90153   0.65353  -1.79737  -1.79737  -1.79737 0.0841251 -0.457757 -0.312739 0.0800837 -0.396465 -0.395815 -0.548952  0.339082   1.11746 
 0.577802 -0.798548 -0.114848  0.215259   2.90153   0.65353  -1.79737  -1.79737  -1.79737 0.0841251 -0.457757 -0.312739 0.0800837 -0.396465 -0.395815 -0.548952  0.132532   1.11746 
 0.577802 -0.798548 -0.114848  0.215259   2.90153   0.65353  -1.79737  -1.79737  -1.79737 0.0841251 -0.457757 -0.312739 0.0800837 -0.396465 -0.395815 -0.548952  0.132532   1.11746 
 0.577802 -0.798548 -0.114848  0.215259   2.90153   0.65353  -1.79737  -1.79737  -1.79737 0.0841251 -0.457757 -0.312739 0.0800837 -0.396465 -0.395815 -0.548952  0.132532   1.11746 
 0.577802 -0.798548 -0.114848  0.215259   2.90153   0.65353  -1.79737  -1.79737  -1.79737 0.0841251 -0.457757 -0.312739 0.0800837 -0.396465 -0.395815 -0.548952  0.132532   1.11746 
 0.577802 -0.798548 -0.114848  0.215259   2.90153   0.65353  -1.79737  -1.79737  -1.79737 0.0841251 -0.457757 -0.312739 0.0800837 -0.396465 0.0588347 -0.548952  0.339082   1.11746 
 0.577802 -0.798548 -0.114848  0.215259   2.90153  0.918408  -1.79737  -1.79737  -1.79737 0.0841251 -0.457757 -0.312739 0.0800837 -0.396465 -0.395815 -0.548952  0.339082   1.11746 
 0.577802  -1.03935 -0.114848  0.215259   2.90153  0.918408  -1.79737  -1.79737  -1.79737 0.0841251 -0.457757 -0.312739 0.0800837 -0.396465 -0.395815 -0.548952  0.132532   1.11746 
 0.577802  -1.03935 -0.114848  0.215259   2.90153  0.918408  -1.79737  -1.79737  -1.79737 0.0841251 -0.457757 -0.312739 0.0800837 -0.396465 -0.395815 -0.548952  0.132532   1.11746 
 0.577802  -1.03935 -0.114848  0.215259   2.90153  0.918408  -1.79737  -1.79737  -1.79737 0.0841251 -0.457757 -0.312739 0.0800837 -0.396465 -0.395815 -0.548952  0.132532   1.11746 
 0.577802  -1.03935 -0.114848  0.215259   2.90153   0.65353  -1.79737  -1.79737  -1.79737 0.0841251 -0.730417 -0.312739 0.0800837 -0.396465 -0.395815 -0.662397  0.132532   1.11746 
 0.577802 -0.798548 -0.114848  0.215259   2.90153   0.65353  -1.79737  -1.79737  -1.79737 0.0841251 -0.457757 -0.312739 0.0800837 -0.396465 -0.395815 -0.548952  0.132532   1.11746 
 0.577802 -0.798548 -0.114848  0.215259   2.90153   0.65353  -1.79737  -1.79737  -1.79737 0.0841251 -0.457757 -0.312739 0.0800837 -0.396465 0.0588347 -0.548952  0.339082   1.11746 
 0.577802  -1.03935  0.282328  0.215259   2.90153  0.918408  -1.79737  -1.79737  -1.79737 0.0841251 -0.457757 -0.312739 0.0800837 -0.396465 -0.395815 -0.548952  0.132532   1.11746 
 0.577802  -1.03935 -0.114848  0.215259   2.90153  0.918408  -1.79737  -1.79737  -1.79737 0.0841251 -0.457757 -0.312739 0.0800837 -0.396465 -0.395815 -0.548952  0.339082   1.11746 
 0.577802  -1.03935 -0.114848  0.215259   2.90153  0.918408  -1.79737  -1.79737  -1.79737 0.0841251 -0.457757 -0.312739 0.0800837 -0.396465 -0.395815 -0.548952  0.339082   1.11746 
 0.577802  -1.03935 -0.114848  0.215259   2.90153  0.918408  -1.79737  -1.79737  -1.79737 0.0841251 -0.457757 -0.312739 0.0800837 -0.396465 -0.395815 -0.548952  0.132532   1.11746 
 0.577802 -0.798548 -0.114848  0.215259   2.90153   0.65353  -1.79737  -1.79737  -1.79737 0.0841251 -0.730417 -0.312739 0.0800837 -0.396465 -0.395815 -0.662397  0.132532   1.11746 
 0.577802  -1.03935 -0.114848  0.215259   2.90153  0.918408  -1.69026  -1.69026  -1.69026 0.0841251 -0.457757 -0.312739 0.0800837 -0.396465 -0.395815 -0.548952  0.339082   1.11746 
 0.577802  -1.03935 -0.114848  0.215259   2.90153  0.918408  -1.69026  -1.69026  -1.69026 0.0841251 -0.457757 -0.312739 0.0800837 -0.396465 -0.395815 -0.548952  0.132532   1.11746 
